<?xml version="1.0" encoding="UTF-8"?>

<!-- generated on 05/09/19 17:05:40 by Eclipse SUMO Version 1.0.1
<configuration xmlns:xsi="http://www.w3.org/2001/XMLSchema-instance" xsi:noNamespaceSchemaLocation="http://sumo.dlr.de/xsd/sumoConfiguration.xsd">

    <input>
        <net-file value="test0.net.xml"/>
        <route-files value="test0_trips.trips.xml"/>
    </input>

    <output>
        <fcd-output value="fcd.xml"/>
    </output>

    <processing>
        <ignore-route-errors value="true"/>
    </processing>

    <routing>
        <device.rerouting.adaptation-steps value="180"/>
    </routing>

    <report>
        <verbose value="true"/>
        <no-warnings value="true"/>
        <duration-log.statistics value="true"/>
        <no-step-log value="true"/>
    </report>

</configuration>
-->

<fcd-export xmlns:xsi="http://www.w3.org/2001/XMLSchema-instance" xsi:noNamespaceSchemaLocation="http://sumo.dlr.de/xsd/fcd_file.xsd">
    <timestep time="0.00">
        <vehicle id="0" x="238.97" y="-88.61" angle="294.32" type="DEFAULT_VEHTYPE" speed="0.00" pos="5.10" lane="-gneE12_0" slope="0.00"/>
        <vehicle id="1" x="171.12" y="48.34" angle="299.43" type="DEFAULT_VEHTYPE" speed="0.00" pos="5.10" lane="-gneE3_0" slope="0.00"/>
        <vehicle id="2" x="241.88" y="-20.24" angle="284.66" type="DEFAULT_VEHTYPE" speed="0.00" pos="5.10" lane="-gneE6_0" slope="0.00"/>
        <vehicle id="3" x="-24.88" y="-65.45" angle="37.23" type="DEFAULT_VEHTYPE" speed="0.00" pos="5.10" lane="-gneE9_0" slope="0.00"/>
        <vehicle id="4" x="96.18" y="106.84" angle="164.22" type="DEFAULT_VEHTYPE" speed="0.00" pos="5.10" lane="gneE10_0" slope="0.00"/>
        <vehicle id="5" x="-6.34" y="72.08" angle="103.89" type="DEFAULT_VEHTYPE" speed="0.00" pos="5.10" lane="gneE1_0" slope="0.00"/>
        <vehicle id="6" x="-48.09" y="16.76" angle="86.84" type="DEFAULT_VEHTYPE" speed="0.00" pos="5.10" lane="gneE4_0" slope="0.00"/>
        <vehicle id="7" x="38.51" y="94.40" angle="158.15" type="DEFAULT_VEHTYPE" speed="0.00" pos="5.10" lane="gneE7_0" slope="0.00"/>
    </timestep>
    <timestep time="1.00">
        <vehicle id="0" x="237.66" y="-88.02" angle="294.32" type="DEFAULT_VEHTYPE" speed="1.44" pos="6.54" lane="-gneE12_0" slope="0.00"/>
        <vehicle id="1" x="169.66" y="49.16" angle="299.43" type="DEFAULT_VEHTYPE" speed="1.67" pos="6.77" lane="-gneE3_0" slope="0.00"/>
        <vehicle id="2" x="239.42" y="-19.60" angle="284.66" type="DEFAULT_VEHTYPE" speed="2.54" pos="7.64" lane="-gneE6_0" slope="0.00"/>
        <vehicle id="3" x="-23.70" y="-63.89" angle="37.23" type="DEFAULT_VEHTYPE" speed="1.96" pos="7.06" lane="-gneE9_0" slope="0.00"/>
        <vehicle id="4" x="96.67" y="105.08" angle="164.22" type="DEFAULT_VEHTYPE" speed="1.83" pos="6.93" lane="gneE10_0" slope="0.00"/>
        <vehicle id="5" x="-3.87" y="71.47" angle="103.89" type="DEFAULT_VEHTYPE" speed="2.54" pos="7.64" lane="gneE1_0" slope="0.00"/>
        <vehicle id="6" x="-46.46" y="16.85" angle="86.84" type="DEFAULT_VEHTYPE" speed="1.63" pos="6.73" lane="gneE4_0" slope="0.00"/>
        <vehicle id="7" x="39.36" y="92.28" angle="158.15" type="DEFAULT_VEHTYPE" speed="2.28" pos="7.38" lane="gneE7_0" slope="0.00"/>
    </timestep>
    <timestep time="2.00">
        <vehicle id="0" x="234.62" y="-86.64" angle="294.32" type="DEFAULT_VEHTYPE" speed="3.33" pos="9.87" lane="-gneE12_0" slope="0.00"/>
        <vehicle id="1" x="166.78" y="50.78" angle="299.43" type="DEFAULT_VEHTYPE" speed="3.31" pos="10.08" lane="-gneE3_0" slope="0.00"/>
        <vehicle id="2" x="234.45" y="-18.30" angle="284.66" type="DEFAULT_VEHTYPE" speed="5.13" pos="12.77" lane="-gneE6_0" slope="0.00"/>
        <vehicle id="3" x="-21.47" y="-60.95" angle="37.23" type="DEFAULT_VEHTYPE" speed="3.69" pos="10.75" lane="-gneE9_0" slope="0.00"/>
        <vehicle id="4" x="97.71" y="101.40" angle="164.22" type="DEFAULT_VEHTYPE" speed="3.83" pos="10.76" lane="gneE10_0" slope="0.00"/>
        <vehicle id="5" x="0.55" y="70.37" angle="103.89" type="DEFAULT_VEHTYPE" speed="4.56" pos="12.20" lane="gneE1_0" slope="0.00"/>
        <vehicle id="6" x="-42.96" y="17.04" angle="86.84" type="DEFAULT_VEHTYPE" speed="3.50" pos="10.23" lane="gneE4_0" slope="0.00"/>
        <vehicle id="7" x="41.04" y="88.07" angle="158.15" type="DEFAULT_VEHTYPE" speed="4.53" pos="11.91" lane="gneE7_0" slope="0.00"/>
    </timestep>
    <timestep time="3.00">
        <vehicle id="0" x="229.29" y="-84.23" angle="294.32" type="DEFAULT_VEHTYPE" speed="5.85" pos="15.73" lane="-gneE12_0" slope="0.00"/>
        <vehicle id="1" x="162.63" y="53.13" angle="299.43" type="DEFAULT_VEHTYPE" speed="4.77" pos="14.85" lane="-gneE3_0" slope="0.00"/>
        <vehicle id="2" x="227.37" y="-16.45" angle="284.66" type="DEFAULT_VEHTYPE" speed="7.31" pos="20.09" lane="-gneE6_0" slope="0.00"/>
        <vehicle id="3" x="-18.20" y="-56.66" angle="37.23" type="DEFAULT_VEHTYPE" speed="5.40" pos="16.14" lane="-gneE9_0" slope="0.00"/>
        <vehicle id="4" x="99.45" y="95.27" angle="164.22" type="DEFAULT_VEHTYPE" speed="6.37" pos="17.13" lane="gneE10_0" slope="0.00"/>
        <vehicle id="5" x="6.85" y="68.81" angle="103.89" type="DEFAULT_VEHTYPE" speed="6.49" pos="18.69" lane="gneE1_0" slope="0.00"/>
        <vehicle id="6" x="-37.28" y="17.36" angle="86.84" type="DEFAULT_VEHTYPE" speed="5.70" pos="15.93" lane="gneE4_0" slope="0.00"/>
        <vehicle id="7" x="43.39" y="82.21" angle="158.15" type="DEFAULT_VEHTYPE" speed="6.31" pos="18.22" lane="gneE7_0" slope="0.00"/>
    </timestep>
    <timestep time="4.00">
        <vehicle id="0" x="222.70" y="-81.25" angle="294.32" type="DEFAULT_VEHTYPE" speed="7.23" pos="22.96" lane="-gneE12_0" slope="0.00"/>
        <vehicle id="1" x="157.15" y="56.22" angle="299.43" type="DEFAULT_VEHTYPE" speed="6.30" pos="21.14" lane="-gneE3_0" slope="0.00"/>
        <vehicle id="2" x="218.90" y="-14.23" angle="284.66" type="DEFAULT_VEHTYPE" speed="8.76" pos="28.85" lane="-gneE6_0" slope="0.00"/>
        <vehicle id="3" x="-13.67" y="-50.70" angle="37.23" type="DEFAULT_VEHTYPE" speed="7.48" pos="23.63" lane="-gneE9_0" slope="0.00"/>
        <vehicle id="4" x="101.00" y="87.76" angle="170.60" type="DEFAULT_VEHTYPE" speed="7.72" pos="2.41" lane=":gneJ4_9_0" slope="0.00"/>
        <vehicle id="5" x="15.37" y="66.71" angle="103.89" type="DEFAULT_VEHTYPE" speed="8.78" pos="27.47" lane="gneE1_0" slope="0.00"/>
        <vehicle id="6" x="-29.03" y="17.81" angle="86.84" type="DEFAULT_VEHTYPE" speed="8.26" pos="24.19" lane="gneE4_0" slope="0.00"/>
        <vehicle id="7" x="46.56" y="74.31" angle="158.15" type="DEFAULT_VEHTYPE" speed="8.52" pos="26.74" lane="gneE7_0" slope="0.00"/>
    </timestep>
    <timestep time="5.00">
        <vehicle id="0" x="214.64" y="-77.61" angle="294.32" type="DEFAULT_VEHTYPE" speed="8.84" pos="31.80" lane="-gneE12_0" slope="0.00"/>
        <vehicle id="1" x="149.58" y="60.49" angle="299.43" type="DEFAULT_VEHTYPE" speed="8.69" pos="29.83" lane="-gneE3_0" slope="0.00"/>
        <vehicle id="2" x="209.11" y="-11.67" angle="284.66" type="DEFAULT_VEHTYPE" speed="10.12" pos="38.97" lane="-gneE6_0" slope="0.00"/>
        <vehicle id="3" x="-7.60" y="-42.70" angle="37.23" type="DEFAULT_VEHTYPE" speed="10.04" pos="33.67" lane="-gneE9_0" slope="0.00"/>
        <vehicle id="4" x="95.65" y="81.78" angle="231.19" type="DEFAULT_VEHTYPE" speed="8.26" pos="10.67" lane=":gneJ4_9_0" slope="0.00"/>
        <vehicle id="5" x="25.55" y="64.19" angle="103.89" type="DEFAULT_VEHTYPE" speed="10.49" pos="37.96" lane="gneE1_0" slope="0.00"/>
        <vehicle id="6" x="-18.62" y="18.39" angle="86.84" type="DEFAULT_VEHTYPE" speed="10.43" pos="34.61" lane="gneE4_0" slope="0.00"/>
        <vehicle id="7" x="48.50" y="69.48" angle="158.15" type="DEFAULT_VEHTYPE" speed="5.21" pos="31.95" lane="gneE7_0" slope="0.00"/>
    </timestep>
    <timestep time="6.00">
        <vehicle id="0" x="204.70" y="-73.12" angle="294.32" type="DEFAULT_VEHTYPE" speed="10.91" pos="42.71" lane="-gneE12_0" slope="0.00"/>
        <vehicle id="1" x="140.84" y="65.42" angle="299.43" type="DEFAULT_VEHTYPE" speed="10.03" pos="39.86" lane="-gneE3_0" slope="0.00"/>
        <vehicle id="2" x="197.14" y="-8.54" angle="284.66" type="DEFAULT_VEHTYPE" speed="12.37" pos="51.34" lane="-gneE6_0" slope="0.00"/>
        <vehicle id="3" x="-0.12" y="-32.87" angle="37.23" type="DEFAULT_VEHTYPE" speed="12.35" pos="46.02" lane="-gneE9_0" slope="0.00"/>
        <vehicle id="4" x="89.17" y="78.28" angle="242.77" type="DEFAULT_VEHTYPE" speed="7.37" pos="5.45" lane="-gneE2_0" slope="0.00"/>
        <vehicle id="5" x="36.55" y="61.47" angle="103.89" type="DEFAULT_VEHTYPE" speed="11.32" pos="49.28" lane="gneE1_0" slope="0.00"/>
        <vehicle id="6" x="-6.36" y="19.07" angle="86.84" type="DEFAULT_VEHTYPE" speed="12.28" pos="46.89" lane="gneE4_0" slope="0.00"/>
        <vehicle id="7" x="48.84" y="68.63" angle="158.15" type="DEFAULT_VEHTYPE" speed="0.92" pos="32.86" lane="gneE7_0" slope="0.00"/>
    </timestep>
    <timestep time="7.00">
        <vehicle id="0" x="192.50" y="-67.61" angle="294.32" type="DEFAULT_VEHTYPE" speed="13.39" pos="56.10" lane="-gneE12_0" slope="0.00"/>
        <vehicle id="1" x="130.59" y="71.20" angle="299.43" type="DEFAULT_VEHTYPE" speed="11.77" pos="51.63" lane="-gneE3_0" slope="0.00"/>
        <vehicle id="2" x="184.46" y="-5.22" angle="284.66" type="DEFAULT_VEHTYPE" speed="13.10" pos="64.44" lane="-gneE6_0" slope="0.00"/>
        <vehicle id="3" x="8.46" y="-21.58" angle="37.23" type="DEFAULT_VEHTYPE" speed="14.18" pos="60.20" lane="-gneE9_0" slope="0.00"/>
        <vehicle id="4" x="80.65" y="73.90" angle="242.77" type="DEFAULT_VEHTYPE" speed="9.57" pos="15.02" lane="-gneE2_0" slope="0.00"/>
        <vehicle id="5" x="43.36" y="59.79" angle="103.89" type="DEFAULT_VEHTYPE" speed="7.02" pos="56.30" lane="gneE1_0" slope="0.00"/>
        <vehicle id="6" x="6.93" y="19.80" angle="86.84" type="DEFAULT_VEHTYPE" speed="13.31" pos="60.20" lane="gneE4_0" slope="0.00"/>
        <vehicle id="7" x="48.87" y="68.57" angle="158.15" type="DEFAULT_VEHTYPE" speed="0.07" pos="32.93" lane="gneE7_0" slope="0.00"/>
    </timestep>
    <timestep time="8.00">
        <vehicle id="0" x="179.67" y="-61.81" angle="294.32" type="DEFAULT_VEHTYPE" speed="14.08" pos="70.18" lane="-gneE12_0" slope="0.00"/>
        <vehicle id="1" x="121.53" y="76.31" angle="299.43" type="DEFAULT_VEHTYPE" speed="10.40" pos="62.03" lane="-gneE3_0" slope="0.00"/>
        <vehicle id="2" x="171.09" y="-1.72" angle="284.66" type="DEFAULT_VEHTYPE" speed="13.82" pos="78.26" lane="-gneE6_0" slope="0.00"/>
        <vehicle id="3" x="16.80" y="-10.59" angle="37.23" type="DEFAULT_VEHTYPE" speed="13.80" pos="74.00" lane="-gneE9_0" slope="0.00"/>
        <vehicle id="4" x="69.86" y="68.34" angle="242.77" type="DEFAULT_VEHTYPE" speed="12.14" pos="27.15" lane="-gneE2_0" slope="0.00"/>
        <vehicle id="5" x="48.39" y="57.80" angle="112.20" type="DEFAULT_VEHTYPE" speed="5.45" pos="4.55" lane=":gneJ3_6_0" slope="0.00"/>
        <vehicle id="6" x="19.72" y="20.51" angle="86.84" type="DEFAULT_VEHTYPE" speed="12.81" pos="73.02" lane="gneE4_0" slope="0.00"/>
        <vehicle id="7" x="48.89" y="68.51" angle="158.15" type="DEFAULT_VEHTYPE" speed="0.06" pos="32.98" lane="gneE7_0" slope="0.00"/>
    </timestep>
    <timestep time="9.00">
        <vehicle id="0" x="166.59" y="-55.89" angle="294.32" type="DEFAULT_VEHTYPE" speed="14.36" pos="84.54" lane="-gneE12_0" slope="0.00"/>
        <vehicle id="1" x="116.02" y="79.42" angle="299.43" type="DEFAULT_VEHTYPE" speed="6.32" pos="68.35" lane="-gneE3_0" slope="0.00"/>
        <vehicle id="2" x="158.68" y="1.52" angle="284.66" type="DEFAULT_VEHTYPE" speed="12.83" pos="91.09" lane="-gneE6_0" slope="0.00"/>
        <vehicle id="3" x="25.28" y="0.56" angle="37.23" type="DEFAULT_VEHTYPE" speed="14.01" pos="88.00" lane="-gneE9_0" slope="0.00"/>
        <vehicle id="4" x="60.87" y="63.72" angle="242.77" type="DEFAULT_VEHTYPE" speed="10.11" pos="37.26" lane="-gneE2_0" slope="0.00"/>
        <vehicle id="5" x="50.48" y="53.45" angle="155.72" type="DEFAULT_VEHTYPE" speed="5.24" pos="9.79" lane=":gneJ3_6_0" slope="0.00"/>
        <vehicle id="6" x="29.46" y="21.05" angle="86.84" type="DEFAULT_VEHTYPE" speed="9.75" pos="82.77" lane="gneE4_0" slope="0.00"/>
        <vehicle id="7" x="48.89" y="68.51" angle="158.15" type="DEFAULT_VEHTYPE" speed="0.00" pos="32.99" lane="gneE7_0" slope="0.00"/>
    </timestep>
    <timestep time="10.00">
        <vehicle id="0" x="153.27" y="-49.88" angle="294.32" type="DEFAULT_VEHTYPE" speed="14.61" pos="99.15" lane="-gneE12_0" slope="0.00"/>
        <vehicle id="1" x="113.84" y="80.65" angle="299.43" type="DEFAULT_VEHTYPE" speed="2.50" pos="70.85" lane="-gneE3_0" slope="0.00"/>
        <vehicle id="2" x="145.37" y="5.01" angle="284.66" type="DEFAULT_VEHTYPE" speed="13.77" pos="104.85" lane="-gneE6_0" slope="0.00"/>
        <vehicle id="3" x="31.03" y="8.13" angle="37.23" type="DEFAULT_VEHTYPE" speed="9.51" pos="97.51" lane="-gneE9_0" slope="0.00"/>
        <vehicle id="4" x="55.16" y="64.25" angle="281.62" type="DEFAULT_VEHTYPE" speed="6.24" pos="5.83" lane=":gneJ3_0_0" slope="0.00"/>
        <vehicle id="5" x="48.81" y="48.52" angle="199.02" type="DEFAULT_VEHTYPE" speed="5.23" pos="3.89" lane="gneE8_0" slope="0.00"/>
        <vehicle id="6" x="34.15" y="19.17" angle="115.07" type="DEFAULT_VEHTYPE" speed="5.71" pos="5.48" lane=":gneJ7_9_0" slope="0.00"/>
        <vehicle id="7" x="48.89" y="68.51" angle="158.15" type="DEFAULT_VEHTYPE" speed="0.00" pos="32.99" lane="gneE7_0" slope="0.00"/>
        <vehicle id="8" x="-48.09" y="16.76" angle="86.84" type="DEFAULT_VEHTYPE" speed="0.00" pos="5.10" lane="gneE4_0" slope="0.00"/>
    </timestep>
    <timestep time="11.00">
        <vehicle id="0" x="140.20" y="-43.97" angle="294.32" type="DEFAULT_VEHTYPE" speed="14.35" pos="113.50" lane="-gneE12_0" slope="0.00"/>
        <vehicle id="1" x="113.27" y="80.97" angle="299.43" type="DEFAULT_VEHTYPE" speed="0.66" pos="71.51" lane="-gneE3_0" slope="0.00"/>
        <vehicle id="2" x="132.64" y="8.34" angle="284.66" type="DEFAULT_VEHTYPE" speed="13.15" pos="118.00" lane="-gneE6_0" slope="0.00"/>
        <vehicle id="3" x="34.06" y="12.11" angle="37.23" type="DEFAULT_VEHTYPE" speed="5.01" pos="102.52" lane="-gneE9_0" slope="0.00"/>
        <vehicle id="4" x="51.83" y="69.76" angle="332.99" type="DEFAULT_VEHTYPE" speed="6.51" pos="1.07" lane="-gneE7_0" slope="0.00"/>
        <vehicle id="5" x="46.32" y="42.24" angle="201.66" type="DEFAULT_VEHTYPE" speed="6.75" pos="10.64" lane="gneE8_0" slope="0.00"/>
        <vehicle id="6" x="31.89" y="14.56" angle="207.40" type="DEFAULT_VEHTYPE" speed="5.27" pos="1.22" lane="gneE9_0" slope="0.00"/>
        <vehicle id="7" x="48.89" y="68.51" angle="158.15" type="DEFAULT_VEHTYPE" speed="0.00" pos="32.99" lane="gneE7_0" slope="0.00"/>
        <vehicle id="8" x="-46.25" y="16.86" angle="86.84" type="DEFAULT_VEHTYPE" speed="1.84" pos="6.94" lane="gneE4_0" slope="0.00"/>
    </timestep>
    <timestep time="12.00">
        <vehicle id="0" x="127.28" y="-38.13" angle="294.32" type="DEFAULT_VEHTYPE" speed="14.18" pos="127.68" lane="-gneE12_0" slope="0.00"/>
        <vehicle id="1" x="113.21" y="81.00" angle="299.43" type="DEFAULT_VEHTYPE" speed="0.06" pos="71.57" lane="-gneE3_0" slope="0.00"/>
        <vehicle id="2" x="120.29" y="11.57" angle="284.66" type="DEFAULT_VEHTYPE" speed="12.76" pos="130.77" lane="-gneE6_0" slope="0.00"/>
        <vehicle id="3" x="34.57" y="12.78" angle="37.23" type="DEFAULT_VEHTYPE" speed="0.84" pos="103.36" lane="-gneE9_0" slope="0.00"/>
        <vehicle id="4" x="48.89" y="77.11" angle="338.17" type="DEFAULT_VEHTYPE" speed="7.91" pos="8.98" lane="-gneE7_0" slope="0.00"/>
        <vehicle id="5" x="43.59" y="35.35" angle="201.66" type="DEFAULT_VEHTYPE" speed="7.41" pos="18.05" lane="gneE8_0" slope="0.00"/>
        <vehicle id="6" x="27.63" y="8.95" angle="217.23" type="DEFAULT_VEHTYPE" speed="7.05" pos="8.27" lane="gneE9_0" slope="0.00"/>
        <vehicle id="7" x="48.89" y="68.51" angle="158.15" type="DEFAULT_VEHTYPE" speed="0.00" pos="32.99" lane="gneE7_0" slope="0.00"/>
        <vehicle id="8" x="-42.96" y="17.05" angle="86.84" type="DEFAULT_VEHTYPE" speed="3.30" pos="10.24" lane="gneE4_0" slope="0.00"/>
    </timestep>
    <timestep time="13.00">
        <vehicle id="0" x="114.44" y="-32.33" angle="294.32" type="DEFAULT_VEHTYPE" speed="14.08" pos="141.76" lane="-gneE12_0" slope="0.00"/>
        <vehicle id="1" x="113.20" y="81.01" angle="299.43" type="DEFAULT_VEHTYPE" speed="0.01" pos="71.59" lane="-gneE3_0" slope="0.00"/>
        <vehicle id="2" x="109.81" y="14.31" angle="284.66" type="DEFAULT_VEHTYPE" speed="10.83" pos="141.60" lane="-gneE6_0" slope="0.00"/>
        <vehicle id="3" x="34.57" y="12.79" angle="37.23" type="DEFAULT_VEHTYPE" speed="0.01" pos="103.37" lane="-gneE9_0" slope="0.00"/>
        <vehicle id="4" x="45.18" y="86.37" angle="338.17" type="DEFAULT_VEHTYPE" speed="9.98" pos="18.96" lane="-gneE7_0" slope="0.00"/>
        <vehicle id="5" x="42.51" y="32.64" angle="201.66" type="DEFAULT_VEHTYPE" speed="2.91" pos="20.97" lane="gneE8_0" slope="0.00"/>
        <vehicle id="6" x="22.02" y="1.57" angle="217.23" type="DEFAULT_VEHTYPE" speed="9.27" pos="17.54" lane="gneE9_0" slope="0.00"/>
        <vehicle id="7" x="48.89" y="68.51" angle="158.15" type="DEFAULT_VEHTYPE" speed="0.00" pos="32.99" lane="gneE7_0" slope="0.00"/>
        <vehicle id="8" x="-38.32" y="17.30" angle="86.84" type="DEFAULT_VEHTYPE" speed="4.64" pos="14.88" lane="gneE4_0" slope="0.00"/>
        <vehicle id="9" x="-48.09" y="16.76" angle="86.84" type="DEFAULT_VEHTYPE" speed="0.00" pos="5.10" lane="gneE4_0" slope="0.00"/>
    </timestep>
    <timestep time="14.00">
        <vehicle id="0" x="102.34" y="-25.36" angle="310.78" type="DEFAULT_VEHTYPE" speed="14.28" pos="156.04" lane="-gneE12_0" slope="0.00"/>
        <vehicle id="1" x="113.20" y="81.01" angle="299.43" type="DEFAULT_VEHTYPE" speed="0.00" pos="71.59" lane="-gneE3_0" slope="0.00"/>
        <vehicle id="2" x="102.47" y="16.23" angle="284.66" type="DEFAULT_VEHTYPE" speed="7.59" pos="149.19" lane="-gneE6_0" slope="0.00"/>
        <vehicle id="3" x="34.57" y="12.79" angle="37.23" type="DEFAULT_VEHTYPE" speed="0.00" pos="103.37" lane="-gneE9_0" slope="0.00"/>
        <vehicle id="4" x="40.85" y="97.19" angle="338.17" type="DEFAULT_VEHTYPE" speed="11.65" pos="30.61" lane="-gneE7_0" slope="0.00"/>
        <vehicle id="5" x="42.45" y="32.49" angle="201.66" type="DEFAULT_VEHTYPE" speed="0.17" pos="21.13" lane="gneE8_0" slope="0.00"/>
        <vehicle id="6" x="14.94" y="-7.75" angle="217.23" type="DEFAULT_VEHTYPE" speed="11.71" pos="29.24" lane="gneE9_0" slope="0.00"/>
        <vehicle id="7" x="48.89" y="68.51" angle="158.15" type="DEFAULT_VEHTYPE" speed="0.00" pos="32.99" lane="gneE7_0" slope="0.00"/>
        <vehicle id="8" x="-31.46" y="17.68" angle="86.84" type="DEFAULT_VEHTYPE" speed="6.87" pos="21.75" lane="gneE4_0" slope="0.00"/>
        <vehicle id="9" x="-46.53" y="16.85" angle="86.84" type="DEFAULT_VEHTYPE" speed="1.56" pos="6.66" lane="gneE4_0" slope="0.00"/>
    </timestep>
    <timestep time="15.00">
        <vehicle id="0" x="93.96" y="-13.48" angle="324.82" type="DEFAULT_VEHTYPE" speed="14.54" pos="170.58" lane="-gneE12_0" slope="0.00"/>
        <vehicle id="1" x="113.20" y="81.01" angle="299.43" type="DEFAULT_VEHTYPE" speed="0.00" pos="71.59" lane="-gneE3_0" slope="0.00"/>
        <vehicle id="2" x="99.48" y="17.01" angle="284.66" type="DEFAULT_VEHTYPE" speed="3.09" pos="152.28" lane="-gneE6_0" slope="0.00"/>
        <vehicle id="3" x="34.57" y="12.79" angle="37.23" type="DEFAULT_VEHTYPE" speed="0.00" pos="103.37" lane="-gneE9_0" slope="0.00"/>
        <vehicle id="5" x="42.42" y="32.41" angle="201.66" type="DEFAULT_VEHTYPE" speed="0.09" pos="21.22" lane="gneE8_0" slope="0.00"/>
        <vehicle id="6" x="6.95" y="-18.27" angle="217.23" type="DEFAULT_VEHTYPE" speed="13.21" pos="42.45" lane="gneE9_0" slope="0.00"/>
        <vehicle id="7" x="48.89" y="68.51" angle="158.15" type="DEFAULT_VEHTYPE" speed="0.00" pos="32.99" lane="gneE7_0" slope="0.00"/>
        <vehicle id="8" x="-22.88" y="18.15" angle="86.84" type="DEFAULT_VEHTYPE" speed="8.59" pos="30.35" lane="gneE4_0" slope="0.00"/>
        <vehicle id="9" x="-43.65" y="17.01" angle="86.84" type="DEFAULT_VEHTYPE" speed="2.88" pos="9.54" lane="gneE4_0" slope="0.00"/>
    </timestep>
    <timestep time="16.00">
        <vehicle id="0" x="88.68" y="-1.85" angle="355.55" type="DEFAULT_VEHTYPE" speed="13.55" pos="184.13" lane="-gneE12_0" slope="0.00"/>
        <vehicle id="1" x="113.20" y="81.01" angle="299.43" type="DEFAULT_VEHTYPE" speed="0.00" pos="71.59" lane="-gneE3_0" slope="0.00"/>
        <vehicle id="2" x="99.31" y="17.05" angle="284.66" type="DEFAULT_VEHTYPE" speed="0.18" pos="152.45" lane="-gneE6_0" slope="0.00"/>
        <vehicle id="3" x="34.57" y="12.79" angle="37.23" type="DEFAULT_VEHTYPE" speed="0.00" pos="103.37" lane="-gneE9_0" slope="0.00"/>
        <vehicle id="5" x="42.41" y="32.39" angle="201.66" type="DEFAULT_VEHTYPE" speed="0.02" pos="21.24" lane="gneE8_0" slope="0.00"/>
        <vehicle id="6" x="-1.37" y="-29.22" angle="217.23" type="DEFAULT_VEHTYPE" speed="13.76" pos="56.21" lane="gneE9_0" slope="0.00"/>
        <vehicle id="7" x="48.89" y="68.51" angle="158.15" type="DEFAULT_VEHTYPE" speed="0.00" pos="32.99" lane="gneE7_0" slope="0.00"/>
        <vehicle id="8" x="-12.20" y="18.75" angle="86.84" type="DEFAULT_VEHTYPE" speed="10.70" pos="41.05" lane="gneE4_0" slope="0.00"/>
        <vehicle id="9" x="-39.06" y="17.26" angle="86.84" type="DEFAULT_VEHTYPE" speed="4.60" pos="14.14" lane="gneE4_0" slope="0.00"/>
    </timestep>
    <timestep time="17.00">
        <vehicle id="0" x="90.58" y="8.46" angle="10.49" type="DEFAULT_VEHTYPE" speed="10.49" pos="194.61" lane="-gneE12_0" slope="0.00"/>
        <vehicle id="1" x="113.20" y="81.01" angle="299.43" type="DEFAULT_VEHTYPE" speed="0.00" pos="71.59" lane="-gneE3_0" slope="0.00"/>
        <vehicle id="2" x="99.26" y="17.07" angle="284.66" type="DEFAULT_VEHTYPE" speed="0.05" pos="152.50" lane="-gneE6_0" slope="0.00"/>
        <vehicle id="3" x="34.57" y="12.79" angle="37.23" type="DEFAULT_VEHTYPE" speed="0.00" pos="103.37" lane="-gneE9_0" slope="0.00"/>
        <vehicle id="5" x="42.41" y="32.39" angle="201.66" type="DEFAULT_VEHTYPE" speed="0.00" pos="21.24" lane="gneE8_0" slope="0.00"/>
        <vehicle id="6" x="-9.39" y="-39.77" angle="217.23" type="DEFAULT_VEHTYPE" speed="13.25" pos="69.46" lane="gneE9_0" slope="0.00"/>
        <vehicle id="7" x="48.89" y="68.51" angle="158.15" type="DEFAULT_VEHTYPE" speed="0.00" pos="32.99" lane="gneE7_0" slope="0.00"/>
        <vehicle id="8" x="0.10" y="19.42" angle="86.84" type="DEFAULT_VEHTYPE" speed="12.31" pos="53.36" lane="gneE4_0" slope="0.00"/>
        <vehicle id="9" x="-31.89" y="17.66" angle="86.84" type="DEFAULT_VEHTYPE" speed="7.18" pos="21.32" lane="gneE4_0" slope="0.00"/>
    </timestep>
    <timestep time="18.00">
        <vehicle id="0" x="92.93" y="13.80" angle="26.36" type="DEFAULT_VEHTYPE" speed="5.99" pos="4.36" lane=":gneJ8_6_0" slope="0.00"/>
        <vehicle id="1" x="113.20" y="81.01" angle="299.43" type="DEFAULT_VEHTYPE" speed="0.00" pos="71.59" lane="-gneE3_0" slope="0.00"/>
        <vehicle id="2" x="99.24" y="17.07" angle="284.66" type="DEFAULT_VEHTYPE" speed="0.02" pos="152.52" lane="-gneE6_0" slope="0.00"/>
        <vehicle id="3" x="34.57" y="12.79" angle="37.23" type="DEFAULT_VEHTYPE" speed="0.00" pos="103.37" lane="-gneE9_0" slope="0.00"/>
        <vehicle id="5" x="42.41" y="32.39" angle="201.66" type="DEFAULT_VEHTYPE" speed="0.00" pos="21.24" lane="gneE8_0" slope="0.00"/>
        <vehicle id="6" x="-18.18" y="-51.34" angle="217.23" type="DEFAULT_VEHTYPE" speed="14.53" pos="83.98" lane="gneE9_0" slope="0.00"/>
        <vehicle id="7" x="48.89" y="68.51" angle="158.15" type="DEFAULT_VEHTYPE" speed="0.00" pos="32.99" lane="gneE7_0" slope="0.00"/>
        <vehicle id="8" x="12.49" y="20.11" angle="86.84" type="DEFAULT_VEHTYPE" speed="12.42" pos="65.78" lane="gneE4_0" slope="0.00"/>
        <vehicle id="9" x="-22.57" y="18.17" angle="86.84" type="DEFAULT_VEHTYPE" speed="9.34" pos="30.66" lane="gneE4_0" slope="0.00"/>
    </timestep>
    <timestep time="19.00">
        <vehicle id="0" x="98.40" y="13.99" angle="90.91" type="DEFAULT_VEHTYPE" speed="5.67" pos="0.98" lane="gneE6_0" slope="0.00"/>
        <vehicle id="1" x="113.20" y="81.01" angle="299.43" type="DEFAULT_VEHTYPE" speed="0.00" pos="71.59" lane="-gneE3_0" slope="0.00"/>
        <vehicle id="2" x="99.24" y="17.07" angle="284.66" type="DEFAULT_VEHTYPE" speed="0.01" pos="152.53" lane="-gneE6_0" slope="0.00"/>
        <vehicle id="3" x="34.57" y="12.79" angle="37.23" type="DEFAULT_VEHTYPE" speed="0.00" pos="103.37" lane="-gneE9_0" slope="0.00"/>
        <vehicle id="5" x="42.41" y="32.39" angle="201.66" type="DEFAULT_VEHTYPE" speed="0.00" pos="21.24" lane="gneE8_0" slope="0.00"/>
        <vehicle id="6" x="-26.30" y="-62.02" angle="217.23" type="DEFAULT_VEHTYPE" speed="13.42" pos="97.40" lane="gneE9_0" slope="0.00"/>
        <vehicle id="7" x="48.89" y="68.51" angle="158.15" type="DEFAULT_VEHTYPE" speed="0.00" pos="32.99" lane="gneE7_0" slope="0.00"/>
        <vehicle id="8" x="22.80" y="20.68" angle="86.84" type="DEFAULT_VEHTYPE" speed="10.33" pos="76.10" lane="gneE4_0" slope="0.00"/>
        <vehicle id="9" x="-10.83" y="18.82" angle="86.84" type="DEFAULT_VEHTYPE" speed="11.75" pos="42.41" lane="gneE4_0" slope="0.00"/>
    </timestep>
    <timestep time="20.00">
        <vehicle id="0" x="106.14" y="11.97" angle="104.66" type="DEFAULT_VEHTYPE" speed="8.00" pos="8.98" lane="gneE6_0" slope="0.00"/>
        <vehicle id="1" x="113.20" y="81.01" angle="299.43" type="DEFAULT_VEHTYPE" speed="0.00" pos="71.59" lane="-gneE3_0" slope="0.00"/>
        <vehicle id="10" x="238.97" y="-88.61" angle="294.32" type="DEFAULT_VEHTYPE" speed="0.00" pos="5.10" lane="-gneE12_0" slope="0.00"/>
        <vehicle id="11" x="171.12" y="48.34" angle="299.43" type="DEFAULT_VEHTYPE" speed="0.00" pos="5.10" lane="-gneE3_0" slope="0.00"/>
        <vehicle id="12" x="241.88" y="-20.24" angle="284.66" type="DEFAULT_VEHTYPE" speed="0.00" pos="5.10" lane="-gneE6_0" slope="0.00"/>
        <vehicle id="13" x="96.18" y="106.84" angle="164.22" type="DEFAULT_VEHTYPE" speed="0.00" pos="5.10" lane="gneE10_0" slope="0.00"/>
        <vehicle id="14" x="-6.34" y="72.08" angle="103.89" type="DEFAULT_VEHTYPE" speed="0.00" pos="5.10" lane="gneE1_0" slope="0.00"/>
        <vehicle id="15" x="-48.09" y="16.76" angle="86.84" type="DEFAULT_VEHTYPE" speed="0.00" pos="5.10" lane="gneE4_0" slope="0.00"/>
        <vehicle id="16" x="38.51" y="94.40" angle="158.15" type="DEFAULT_VEHTYPE" speed="0.00" pos="5.10" lane="gneE7_0" slope="0.00"/>
        <vehicle id="2" x="99.23" y="17.08" angle="284.66" type="DEFAULT_VEHTYPE" speed="0.00" pos="152.54" lane="-gneE6_0" slope="0.00"/>
        <vehicle id="3" x="34.57" y="12.79" angle="37.23" type="DEFAULT_VEHTYPE" speed="0.00" pos="103.37" lane="-gneE9_0" slope="0.00"/>
        <vehicle id="5" x="42.41" y="32.39" angle="201.66" type="DEFAULT_VEHTYPE" speed="0.00" pos="21.24" lane="gneE8_0" slope="0.00"/>
        <vehicle id="7" x="48.89" y="68.51" angle="158.15" type="DEFAULT_VEHTYPE" speed="0.00" pos="32.99" lane="gneE7_0" slope="0.00"/>
        <vehicle id="8" x="29.09" y="21.03" angle="86.84" type="DEFAULT_VEHTYPE" speed="6.30" pos="82.40" lane="gneE4_0" slope="0.00"/>
        <vehicle id="9" x="-0.04" y="19.42" angle="86.84" type="DEFAULT_VEHTYPE" speed="10.81" pos="53.22" lane="gneE4_0" slope="0.00"/>
    </timestep>
    <timestep time="21.00">
        <vehicle id="0" x="116.24" y="9.32" angle="104.66" type="DEFAULT_VEHTYPE" speed="10.45" pos="19.43" lane="gneE6_0" slope="0.00"/>
        <vehicle id="1" x="113.20" y="81.01" angle="299.43" type="DEFAULT_VEHTYPE" speed="0.00" pos="71.59" lane="-gneE3_0" slope="0.00"/>
        <vehicle id="10" x="236.72" y="-87.59" angle="294.32" type="DEFAULT_VEHTYPE" speed="2.47" pos="7.57" lane="-gneE12_0" slope="0.00"/>
        <vehicle id="11" x="169.36" y="49.33" angle="299.43" type="DEFAULT_VEHTYPE" speed="2.02" pos="7.12" lane="-gneE3_0" slope="0.00"/>
        <vehicle id="12" x="240.27" y="-19.82" angle="284.66" type="DEFAULT_VEHTYPE" speed="1.66" pos="6.76" lane="-gneE6_0" slope="0.00"/>
        <vehicle id="13" x="96.80" y="104.62" angle="164.22" type="DEFAULT_VEHTYPE" speed="2.31" pos="7.41" lane="gneE10_0" slope="0.00"/>
        <vehicle id="14" x="-4.10" y="71.52" angle="103.89" type="DEFAULT_VEHTYPE" speed="2.30" pos="7.40" lane="gneE1_0" slope="0.00"/>
        <vehicle id="15" x="-46.52" y="16.85" angle="86.84" type="DEFAULT_VEHTYPE" speed="1.57" pos="6.67" lane="gneE4_0" slope="0.00"/>
        <vehicle id="16" x="39.09" y="92.95" angle="158.15" type="DEFAULT_VEHTYPE" speed="1.56" pos="6.66" lane="gneE7_0" slope="0.00"/>
        <vehicle id="2" x="99.23" y="17.08" angle="284.66" type="DEFAULT_VEHTYPE" speed="0.00" pos="152.54" lane="-gneE6_0" slope="0.00"/>
        <vehicle id="3" x="34.57" y="12.79" angle="37.23" type="DEFAULT_VEHTYPE" speed="0.00" pos="103.37" lane="-gneE9_0" slope="0.00"/>
        <vehicle id="5" x="42.41" y="32.39" angle="201.66" type="DEFAULT_VEHTYPE" speed="0.00" pos="21.24" lane="gneE8_0" slope="0.00"/>
        <vehicle id="7" x="48.89" y="68.51" angle="158.15" type="DEFAULT_VEHTYPE" speed="0.00" pos="32.99" lane="gneE7_0" slope="0.00"/>
        <vehicle id="8" x="33.36" y="20.41" angle="96.93" type="DEFAULT_VEHTYPE" speed="4.42" pos="3.82" lane=":gneJ7_9_0" slope="0.00"/>
        <vehicle id="9" x="11.67" y="20.06" angle="86.84" type="DEFAULT_VEHTYPE" speed="11.73" pos="64.95" lane="gneE4_0" slope="0.00"/>
    </timestep>
    <timestep time="22.00">
        <vehicle id="0" x="127.71" y="6.32" angle="104.66" type="DEFAULT_VEHTYPE" speed="11.85" pos="31.28" lane="gneE6_0" slope="0.00"/>